data_global
_chemical_name_mineral 'Spinel'
loop_
_publ_author_name
'Passerini L'
_journal_name_full 'Gazzetta Chimica Italiana'
_journal_volume 60 
_journal_year 1930
_journal_page_first 389
_journal_page_last 399
_publ_section_title
;
 Ricerche sugli Spinelli.- II. I composti. Cu Al2 O4, Mg Al2 O4,
 Mg Fe2 O4, Zn Al2 O4, Zn Cr2 O4, Zn Fe2 O4, Mn Fe2 O4
 _cod_database_code 1010129
;
_database_code_amcsd 0017059
_chemical_formula_sum 'Mg Al2 O4'
_chemical_formula_sum ''
_cell_length_a 8.050
_cell_length_b 8.050
_cell_length_c 8.050
_cell_angle_alpha 90
_cell_angle_beta 90
_cell_angle_gamma 90
_cell_volume 521.660
_exptl_crystal_density_diffrn      3.623
_symmetry_space_group_name_H-M 'F d 3 m'
loop_
_space_group_symop_operation_xyz
  'x,y,z'
  'x,1/2+y,1/2+z'
  '1/2+x,y,1/2+z'
  '1/2+x,1/2+y,z'
  '3/4+z,3/4-x,1/4+y'
  '3/4+z,1/4-x,3/4+y'
  '1/4+z,3/4-x,3/4+y'
  '1/4+z,1/4-x,1/4+y'
  '-y,1/2+z,1/2-x'
  '-y,+z,-x'
  '1/2-y,1/2+z,-x'
  '1/2-y,+z,1/2-x'
  '3/4+x,3/4-y,1/4+z'
  '3/4+x,1/4-y,3/4+z'
  '1/4+x,3/4-y,3/4+z'
  '1/4+x,1/4-y,1/4+z'
  '-z,1/2+x,1/2-y'
  '-z,+x,-y'
  '1/2-z,1/2+x,-y'
  '1/2-z,+x,1/2-y'
  '3/4+y,3/4-z,1/4+x'
  '3/4+y,1/4-z,3/4+x'
  '1/4+y,3/4-z,3/4+x'
  '1/4+y,1/4-z,1/4+x'
  '-x,1/2+y,1/2-z'
  '-x,+y,-z'
  '1/2-x,1/2+y,-z'
  '1/2-x,+y,1/2-z'
  '1/2+x,-z,1/2-y'
  '1/2+x,1/2-z,-y'
  '+x,-z,-y'
  '+x,1/2-z,1/2-y'
  '3/4-z,3/4+y,1/4+x'
  '3/4-z,1/4+y,3/4+x'
  '1/4-z,3/4+y,3/4+x'
  '1/4-z,1/4+y,1/4+x'
  '1/2+y,-x,1/2-z'
  '1/2+y,1/2-x,-z'
  '+y,-x,-z'
  '+y,1/2-x,1/2-z'
  '3/4-x,3/4+z,1/4+y'
  '3/4-x,1/4+z,3/4+y'
  '1/4-x,3/4+z,3/4+y'
  '1/4-x,1/4+z,1/4+y'
  '1/2+z,-y,1/2-x'
  '1/2+z,1/2-y,-x'
  '+z,-y,-x'
  '+z,1/2-y,1/2-x'
  '3/4-y,3/4+x,1/4+z'
  '3/4-y,1/4+x,3/4+z'
  '1/4-y,3/4+x,3/4+z'
  '1/4-y,1/4+x,1/4+z'
  'x,1/2+z,1/2+y'
  'x,+z,+y'
  '1/2+x,1/2+z,+y'
  '1/2+x,+z,1/2+y'
  '1/4-z,3/4-y,3/4-x'
  '1/4-z,1/4-y,1/4-x'
  '3/4-z,3/4-y,1/4-x'
  '3/4-z,1/4-y,3/4-x'
  'y,1/2+x,1/2+z'
  'y,+x,+z'
  '1/2+y,1/2+x,+z'
  '1/2+y,+x,1/2+z'
  '1/4-x,3/4-z,3/4-y'
  '1/4-x,1/4-z,1/4-y'
  '3/4-x,3/4-z,1/4-y'
  '3/4-x,1/4-z,3/4-y'
  'z,1/2+y,1/2+x'
  'z,+y,+x'
  '1/2+z,1/2+y,+x'
  '1/2+z,+y,1/2+x'
  '1/4-y,3/4-x,3/4-z'
  '1/4-y,1/4-x,1/4-z'
  '3/4-y,3/4-x,1/4-z'
  '3/4-y,1/4-x,3/4-z'
  '3/4+z,1/4+x,3/4-y'
  '3/4+z,3/4+x,1/4-y'
  '1/4+z,1/4+x,1/4-y'
  '1/4+z,3/4+x,3/4-y'
  '-y,1/2-z,1/2+x'
  '-y,-z,+x'
  '1/2-y,1/2-z,+x'
  '1/2-y,-z,1/2+x'
  '3/4+x,1/4+y,3/4-z'
  '3/4+x,3/4+y,1/4-z'
  '1/4+x,1/4+y,1/4-z'
  '1/4+x,3/4+y,3/4-z'
  '-z,1/2-x,1/2+y'
  '-z,-x,+y'
  '1/2-z,1/2-x,+y'
  '1/2-z,-x,1/2+y'
  '3/4+y,1/4+z,3/4-x'
  '3/4+y,3/4+z,1/4-x'
  '1/4+y,1/4+z,1/4-x'
  '1/4+y,3/4+z,3/4-x'
  '-x,1/2-y,1/2+z'
  '-x,-y,+z'
  '1/2-x,1/2-y,+z'
  '1/2-x,-y,1/2+z'
  '1/4-z,3/4+x,3/4+y'
  '1/4-z,1/4+x,1/4+y'
  '3/4-z,3/4+x,1/4+y'
  '3/4-z,1/4+x,3/4+y'
  'y,-z,-x'
  'y,1/2-z,1/2-x'
  '1/2+y,-z,1/2-x'
  '1/2+y,1/2-z,-x'
  '1/4-x,3/4+y,3/4+z'
  '1/4-x,1/4+y,1/4+z'
  '3/4-x,3/4+y,1/4+z'
  '3/4-x,1/4+y,3/4+z'
  'z,-x,-y'
  'z,1/2-x,1/2-y'
  '1/2+z,-x,1/2-y'
  '1/2+z,1/2-x,-y'
  '1/4-y,3/4+z,3/4+x'
  '1/4-y,1/4+z,1/4+x'
  '3/4-y,3/4+z,1/4+x'
  '3/4-y,1/4+z,3/4+x'
  'x,-y,-z'
  'x,1/2-y,1/2-z'
  '1/2+x,-y,1/2-z'
  '1/2+x,1/2-y,-z'
  '1/2-x,1/2+z,-y'
  '1/2-x,+z,1/2-y'
  '-x,1/2+z,1/2-y'
  '-x,+z,-y'
  '1/4+z,3/4-y,3/4+x'
  '1/4+z,1/4-y,1/4+x'
  '3/4+z,3/4-y,1/4+x'
  '3/4+z,1/4-y,3/4+x'
  '1/2-y,1/2+x,-z'
  '1/2-y,+x,1/2-z'
  '-y,1/2+x,1/2-z'
  '-y,+x,-z'
  '1/4+x,3/4-z,3/4+y'
  '1/4+x,1/4-z,1/4+y'
  '3/4+x,3/4-z,1/4+y'
  '3/4+x,1/4-z,3/4+y'
  '1/2-z,1/2+y,-x'
  '1/2-z,+y,1/2-x'
  '-z,1/2+y,1/2-x'
  '-z,+y,-x'
  '1/4+y,3/4-x,3/4+z'
  '1/4+y,1/4-x,1/4+z'
  '3/4+y,3/4-x,1/4+z'
  '3/4+y,1/4-x,3/4+z'
  '-x,-z,y'
  '-x,1/2-z,1/2+y'
  '1/2-x,-z,1/2+y'
  '1/2-x,1/2-z,y'
  '3/4+z,3/4+y,1/4-x'
  '3/4+z,1/4+y,3/4-x'
  '1/4+z,3/4+y,3/4-x'
  '1/4+z,1/4+y,1/4-x'
  '-y,-x,z'
  '-y,1/2-x,1/2+z'
  '1/2-y,-x,1/2+z'
  '1/2-y,1/2-x,z'
  '3/4+x,3/4+z,1/4-y'
  '3/4+x,1/4+z,3/4-y'
  '1/4+x,3/4+z,3/4-y'
  '1/4+x,1/4+z,1/4-y'
  '-z,-y,x'
  '-z,1/2-y,1/2+x'
  '1/2-z,-y,1/2+x'
  '1/2-z,1/2-y,x'
  '3/4+y,3/4+x,1/4-z'
  '3/4+y,1/4+x,3/4-z'
  '1/4+y,3/4+x,3/4-z'
  '1/4+y,1/4+x,1/4-z'
  '1/4-z,1/4-x,1/4-y'
  '1/4-z,3/4-x,3/4-y'
  '3/4-z,1/4-x,3/4-y'
  '3/4-z,3/4-x,1/4-y'
  'y,z,x'
  'y,1/2+z,1/2+x'
  '1/2+y,z,1/2+x'
  '1/2+y,1/2+z,x'
  '1/4-x,1/4-y,1/4-z'
  '1/4-x,3/4-y,3/4-z'
  '3/4-x,1/4-y,3/4-z'
  '3/4-x,3/4-y,1/4-z'
  'z,x,y'
  'z,1/2+x,1/2+y'
  '1/2+z,x,1/2+y'
  '1/2+z,1/2+x,y'
  '1/4-y,1/4-z,1/4-x'
  '1/4-y,3/4-z,3/4-x'
  '3/4-y,1/4-z,3/4-x'
  '3/4-y,3/4-z,1/4-x'
loop_
_atom_site_label
_atom_site_fract_x
_atom_site_fract_y
_atom_site_fract_z
Mg1   0.00000   0.00000   0.00000
Al1   0.62500   0.62500   0.62500
O1   0.37500   0.37500   0.37500
